                         Program Version 5.0.4 -  RELEASE  -
|  1> ! HF STO-3G LARGEPRINT
|  2>
|  3> %output
|  4> 	Print[ P_Basis ] 2
|  5> 	Print[ P_MOs ] 1
|  6> end
|  7>
|  8> * xyzfile 0 1 co-b.xyz
|  9>
| 10>                          ****END OF INPUT****

CARTESIAN COORDINATES (ANGSTROEM)
---------------------------------
  C      0.000000    0.000000    0.000000
  O      0.000000    0.000000    1.128212

 Total Charge           Charge          ....    0
 Multiplicity           Mult            ....    1
 Number of Electrons    NEL             ....   14
 Basis Dimension        Dim             ....   10

ORBITAL ENERGIES
----------------

  NO   OCC          E(Eh)            E(eV)
   0   2.0000     -20.424245      -555.7720
   1   2.0000     -11.093395      -301.8666
   2   2.0000      -1.459952       -39.7273
   3   2.0000      -0.699452       -19.0331
   4   2.0000      -0.551094       -14.9960
   5   2.0000      -0.551094       -14.9960
   6   2.0000      -0.446458       -12.1487
   7   0.0000       0.313404         8.5282
   8   0.0000       0.313404         8.5282
   9   0.0000       1.040051        28.3012
------------------
MOLECULAR ORBITALS
------------------
                      0         1         2         3         4         5
                 -20.42425 -11.09340  -1.45995  -0.69945  -0.55109  -0.55109
                   2.00000   2.00000   2.00000   2.00000   2.00000   2.00000
                  --------  --------  --------  --------  --------  --------
  0C   1s        -0.000397 -0.993603  0.126550 -0.166033  0.000000 -0.000000
  0C   2s         0.008707 -0.026321 -0.240295  0.538669 -0.000000  0.000000
  0C   1pz        0.007378 -0.007013 -0.166937  0.067866 -0.000000 -0.000000
  0C   1px       -0.000000  0.000000 -0.000000 -0.000000 -0.410767 -0.172621
  0C   1py        0.000000  0.000000 -0.000000 -0.000000  0.172621 -0.410767
  1O   1s        -0.994150  0.000214  0.222429  0.132000  0.000000 -0.000000
  1O   2s        -0.027780  0.006936 -0.766373 -0.645855 -0.000000  0.000000
  1O   1pz        0.006835 -0.000979  0.217965 -0.627723 -0.000000  0.000000
  1O   1px        0.000000 -0.000000 -0.000000  0.000000 -0.729159 -0.306422
  1O   1py       -0.000000 -0.000000 -0.000000 -0.000000  0.306422 -0.729159
                      6         7         8         9
                  -0.44646   0.31340   0.31340   1.04005
                   2.00000   0.00000   0.00000   0.00000
                  --------  --------  --------  --------
  0C   1s        -0.167121 -0.000000 -0.000000 -0.121927
  0C   2s         0.760911  0.000000  0.000000  0.973644
  0C   1pz       -0.572802 -0.000000 -0.000000  1.228912
  0C   1px       -0.000000  0.911346 -0.193251 -0.000000
  0C   1py        0.000000 -0.193251 -0.911346  0.000000
  1O   1s         0.001092 -0.000000 -0.000000  0.128274
  1O   2s         0.038167 -0.000000  0.000000 -1.085178
  1O   1pz        0.434072  0.000000  0.000000  0.969183
  1O   1px        0.000000 -0.649529  0.137733  0.000000
  1O   1py       -0.000000  0.137733  0.649529  0.000000

MULLIKEN ATOMIC CHARGES
-----------------------
   0 C :    0.200702
   1 O :   -0.200702
Sum of atomic charges:   -0.0000000

LOEWDIN ATOMIC CHARGES
----------------------
   0 C :    0.038091
   1 O :   -0.038091

  Mayer bond orders larger than 0.100000
B(  0-C ,  1-O ) :   2.5151

FINAL SINGLE POINT ENERGY      -111.224580536489

DIPOLE MOMENT
-------------
                                X             Y             Z
Electronic contribution:      0.00000      -0.00000       0.05902
Nuclear contribution   :      0.00000       0.00000       0.00715
                        -----------------------------------------
Total Dipole Moment    :      0.00000      -0.00000       0.06618
                        -----------------------------------------
Magnitude (a.u.)       :      0.06618
Magnitude (Debye)      :      0.16821

Rotational constants in cm-1:     0.000000     1.930442     1.930442
Rotational constants in MHz :     0.000000 57873.195492 57873.195492

                             ****ORCA TERMINATED NORMALLY****
TOTAL RUN TIME: 0 days 0 hours 0 minutes 0 seconds 134 msec
