                         Program Version 5.0.4 -  RELEASE  -
|  1> ! HF STO-3G LARGEPRINT
|  2>
|  3> %output
|  4> 	Print[ P_Basis ] 2
|  5> 	Print[ P_MOs ] 1
|  6> end
|  7>
|  8> * xyzfile 0 1 co.xyz
|  9>
| 10>                          ****END OF INPUT****

CARTESIAN COORDINATES (ANGSTROEM)
---------------------------------
  C      0.000000    0.000000    0.000000
  O      0.000000    0.000000    2.132000

 Total Charge           Charge          ....    0
 Multiplicity           Mult            ....    1
 Number of Electrons    NEL             ....   14
 Basis Dimension        Dim             ....   10

ORBITAL ENERGIES
----------------

  NO   OCC          E(Eh)            E(eV)
   0   2.0000     -20.154164      -548.4227
   1   2.0000     -11.027196      -300.0653
   2   2.0000      -1.046895       -28.4875
   3   2.0000      -0.660146       -17.9635
   4   2.0000      -0.317477        -8.6390
   5   2.0000      -0.317477        -8.6390
   6   2.0000      -0.285434        -7.7670
   7   0.0000       0.202927         5.5219
   8   0.0000       0.202927         5.5219
   9   0.0000       0.345579         9.4037
------------------
MOLECULAR ORBITALS
------------------
                      0         1         2         3         4         5
                 -20.15416 -11.02720  -1.04690  -0.66015  -0.31748  -0.31748
                   2.00000   2.00000   2.00000   2.00000   2.00000   2.00000
                  --------  --------  --------  --------  --------  --------
  0C   1s         0.000192  0.994216 -0.028382 -0.274861 -0.000000  0.000000
  0C   2s        -0.000895  0.022365  0.101536  1.021000  0.000000 -0.000000
  0C   1pz       -0.001217  0.000520  0.060218 -0.005462 -0.000001  0.000000
  0C   1px        0.000000 -0.000000 -0.000000 -0.000000  0.062719 -0.031743
  0C   1py        0.000000  0.000000  0.000000  0.000000  0.031743  0.062720
  1O   1s         0.994945  0.000230 -0.259215  0.038685 -0.000000  0.000000
  1O   2s         0.020565 -0.001156  1.009738 -0.164684  0.000000 -0.000000
  1O   1pz       -0.000403  0.001095 -0.000258 -0.069815  0.000001 -0.000000
  1O   1px       -0.000000  0.000000 -0.000000 -0.000000  0.888504 -0.449680
  1O   1py       -0.000000 -0.000000 -0.000000 -0.000000  0.449680  0.888504
                      6         7         8         9
                  -0.28543   0.20293   0.20293   0.34558
                   2.00000   0.00000   0.00000   0.00000
                  --------  --------  --------  --------
  0C   1s        -0.009367 -0.000000  0.000000  0.037774
  0C   2s         0.037405  0.000000 -0.000000 -0.149447
  0C   1pz       -0.950053 -0.000000  0.000001 -0.341764
  0C   1px       -0.000001  0.450586 -0.890294  0.000001
  0C   1py       -0.000000 -0.890294 -0.450586  0.000000
  1O   1s        -0.032266 -0.000000  0.000000 -0.013820
  1O   2s         0.151909  0.000000 -0.000000  0.064643
  1O   1pz        0.231033  0.000000 -0.000001 -0.980378
  1O   1px       -0.000001 -0.042700  0.084368  0.000001
  1O   1py       -0.000000  0.084368  0.042700  0.000000

MULLIKEN ATOMIC CHARGES
-----------------------
   0 C :    0.146092
   1 O :   -0.146092
Sum of atomic charges:   -0.0000000

LOEWDIN ATOMIC CHARGES
----------------------
   0 C :    0.153786
   1 O :   -0.153786

  Mayer bond orders larger than 0.100000
B(  0-C ,  1-O ) :   0.3683

FINAL SINGLE POINT ENERGY      -110.792888790609

DIPOLE MOMENT
-------------
                                X             Y             Z
Electronic contribution:      0.00000       0.00000      -0.60482
Nuclear contribution   :      0.00000       0.00000       0.01352
                        -----------------------------------------
Total Dipole Moment    :      0.00000       0.00000      -0.59130
                        -----------------------------------------
Magnitude (a.u.)       :      0.59130
Magnitude (Debye)      :      1.50297

Rotational constants in cm-1:     0.000000     0.540585     0.540585
Rotational constants in MHz :     0.000000 16206.316146 16206.316146

                             ****ORCA TERMINATED NORMALLY****
TOTAL RUN TIME: 0 days 0 hours 0 minutes 0 seconds 183 msec
