                         Program Version 5.0.4 -  RELEASE  -
|  1> ! HF STO-3G LARGEPRINT
|  2>
|  3> %output
|  4> 	Print[ P_Basis ] 2
|  5> 	Print[ P_MOs ] 1
|  6> end
|  7>
|  8> * xyzfile 1 1 heh-b.xyz
|  9>
| 10>                          ****END OF INPUT****

CARTESIAN COORDINATES (ANGSTROEM)
---------------------------------
  He     0.000000    0.000000    0.000000
  H      0.000000    0.000000    0.774296

 Total Charge           Charge          ....    1
 Multiplicity           Mult            ....    1
 Number of Electrons    NEL             ....    2
 Basis Dimension        Dim             ....    2

ORBITAL ENERGIES
----------------

  NO   OCC          E(Eh)            E(eV)
   0   2.0000      -1.632799       -44.4307
   1   0.0000      -0.172487        -4.6936
------------------
MOLECULAR ORBITALS
------------------
                      0         1
                  -1.63280  -0.17249
                   2.00000   0.00000
                  --------  --------
  0He  1s        -0.876605  0.797746
  1H   1s        -0.202481 -1.167833

MULLIKEN ATOMIC CHARGES
-----------------------
   0 He:    0.272563
   1 H :    0.727437
Sum of atomic charges:    1.0000000

LOEWDIN ATOMIC CHARGES
----------------------
   0 He:    0.386262
   1 H :    0.613738

  Mayer bond orders larger than 0.100000
B(  0-He,  1-H ) :   0.4708

FINAL SINGLE POINT ENERGY        -2.841837298777

DIPOLE MOMENT
-------------
                                X             Y             Z
Electronic contribution:     -0.00000      -0.00000       0.24207
Nuclear contribution   :      0.00000       0.00000       0.58020
                        -----------------------------------------
Total Dipole Moment    :      0.00000       0.00000       0.82227
                        -----------------------------------------
Magnitude (a.u.)       :      0.82227
Magnitude (Debye)      :      2.09004

Rotational constants in cm-1:     0.000000    34.918932    34.918932
Rotational constants in MHz :     0.000000 1046843.246487 1046843.246487

                             ****ORCA TERMINATED NORMALLY****
TOTAL RUN TIME: 0 days 0 hours 0 minutes 0 seconds 112 msec
