                         Program Version 5.0.4 -  RELEASE  -
|  1> ! HF STO-3G LARGEPRINT
|  2>
|  3> %output
|  4> 	Print[ P_Basis ] 2
|  5> 	Print[ P_MOs ] 1
|  6> end
|  7>
|  8> * xyzfile 1 1 heh.xyz
|  9>
| 10>                          ****END OF INPUT****

CARTESIAN COORDINATES (ANGSTROEM)
---------------------------------
  He     0.000000    0.000000    0.000000
  H      0.000000    0.000000    1.463200

 Total Charge           Charge          ....    1
 Multiplicity           Mult            ....    1
 Number of Electrons    NEL             ....    2
 Basis Dimension        Dim             ....    2

ORBITAL ENERGIES
----------------

  NO   OCC          E(Eh)            E(eV)
   0   2.0000      -1.273653       -34.6579
   1   0.0000      -0.420435       -11.4406
------------------
MOLECULAR ORBITALS
------------------
                      0         1
                  -1.27365  -0.42044
                   2.00000   0.00000
                  --------  --------
  0He  1s        -0.968493  0.312173
  1H   1s        -0.127630 -1.009525

MULLIKEN ATOMIC CHARGES
-----------------------
   0 He:    0.078310
   1 H :    0.921690
Sum of atomic charges:    1.0000000

LOEWDIN ATOMIC CHARGES
----------------------
   0 He:    0.094217
   1 H :    0.905783

  Mayer bond orders larger than 0.100000
B(  0-He,  1-H ) :   0.1505

FINAL SINGLE POINT ENERGY        -2.825194203936

DIPOLE MOMENT
-------------
                                X             Y             Z
Electronic contribution:     -0.00000      -0.00000       0.92676
Nuclear contribution   :      0.00000       0.00000       1.09642
                        -----------------------------------------
Total Dipole Moment    :      0.00000       0.00000       2.02317
                        -----------------------------------------
Magnitude (a.u.)       :      2.02317
Magnitude (Debye)      :      5.14250

Rotational constants in cm-1:     0.000000     9.778400     9.778400
Rotational constants in MHz :     0.000000 293149.055686 293149.055686

                             ****ORCA TERMINATED NORMALLY****
TOTAL RUN TIME: 0 days 0 hours 0 minutes 0 seconds 114 msec
