                         Program Version 5.0.4 -  RELEASE  -
|  1> ! HF STO-3G LARGEPRINT
|  2>
|  3> %output
|  4> 	Print[ P_Basis ] 2
|  5> 	Print[ P_MOs ] 1
|  6> end
|  7>
|  8> * xyzfile 0 1 hf-b.xyz
|  9>
| 10>                          ****END OF INPUT****

CARTESIAN COORDINATES (ANGSTROEM)
---------------------------------
  H      0.000000    0.000000    0.000000
  F      0.000000    0.000000    0.917069

 Total Charge           Charge          ....    0
 Multiplicity           Mult            ....    1
 Number of Electrons    NEL             ....   10
 Basis Dimension        Dim             ....    6

ORBITAL ENERGIES
----------------

  NO   OCC          E(Eh)            E(eV)
   0   2.0000     -25.900036      -704.7758
   1   2.0000      -1.471181       -40.0329
   2   2.0000      -0.585154       -15.9228
   3   2.0000      -0.464161       -12.6305
   4   2.0000      -0.464161       -12.6305
   5   0.0000       0.628957        17.1148
------------------
MOLECULAR ORBITALS
------------------
                      0         1         2         3         4         5
                 -25.90004  -1.47118  -0.58515  -0.46416  -0.46416   0.62896
                   2.00000   2.00000   2.00000   2.00000   2.00000   0.00000
                  --------  --------  --------  --------  --------  --------
  0H   1s         0.005783 -0.158431  0.521393  0.000000 -0.000000  1.090251
  1F   1s        -0.994699  0.249194  0.082477  0.000000 -0.000000  0.084880
  1F   2s        -0.022639 -0.936264 -0.434621 -0.000000  0.000000 -0.559394
  1F   1pz        0.002959  0.089858 -0.702130 -0.000000  0.000000  0.824687
  1F   1px        0.000000 -0.000000  0.000000 -0.295086  0.955471  0.000000
  1F   1py       -0.000000  0.000000 -0.000000  0.955471  0.295086  0.000000

MULLIKEN ATOMIC CHARGES
-----------------------
   0 H :    0.211013
   1 F :   -0.211013
Sum of atomic charges:   -0.0000000

LOEWDIN ATOMIC CHARGES
----------------------
   0 H :    0.152178
   1 F :   -0.152178

  Mayer bond orders larger than 0.100000
B(  0-H ,  1-F ) :   0.9555

FINAL SINGLE POINT ENERGY       -98.570787675708

DIPOLE MOMENT
-------------
                                X             Y             Z
Electronic contribution:     -0.00000       0.00000       0.35293
Nuclear contribution   :      0.00000       0.00000      -0.85983
                        -----------------------------------------
Total Dipole Moment    :     -0.00000       0.00000      -0.50690
                        -----------------------------------------
Magnitude (a.u.)       :      0.50690
Magnitude (Debye)      :      1.28845

Rotational constants in cm-1:     0.000000    20.940391    20.940391
Rotational constants in MHz :     0.000000 627777.120423 627777.120423

                             ****ORCA TERMINATED NORMALLY****
TOTAL RUN TIME: 0 days 0 hours 0 minutes 0 seconds 130 msec
