                         Program Version 5.0.4 -  RELEASE  -
|  1> ! HF STO-3G LARGEPRINT
|  2>
|  3> %output
|  4> 	Print[ P_Basis ] 2
|  5> 	Print[ P_MOs ] 1
|  6> end
|  7>
|  8> * xyzfile 0 1 hf.xyz
|  9>
| 10>                          ****END OF INPUT****

CARTESIAN COORDINATES (ANGSTROEM)
---------------------------------
  H      0.000000    0.000000    0.000000
  F      0.000000    0.000000    1.733000

 Total Charge           Charge          ....    0
 Multiplicity           Mult            ....    1
 Number of Electrons    NEL             ....   10
 Basis Dimension        Dim             ....    6

ORBITAL ENERGIES
----------------

  NO   OCC          E(Eh)            E(eV)
   0   2.0000     -25.931890      -705.6426
   1   2.0000      -1.395093       -37.9624
   2   2.0000      -0.465797       -12.6750
   3   2.0000      -0.465797       -12.6750
   4   2.0000      -0.352057        -9.5800
   5   0.0000       0.150323         4.0905
------------------
MOLECULAR ORBITALS
------------------
                      0         1         2         3         4         5
                 -25.93189  -1.39509  -0.46580  -0.46580  -0.35206   0.15032
                   2.00000   2.00000   2.00000   2.00000   2.00000   0.00000
                  --------  --------  --------  --------  --------  --------
  0H   1s         0.001117  0.047737 -0.000000  0.000000 -0.653798  0.769186
  1F   1s        -0.995102 -0.262941  0.000000  0.000000 -0.021401  0.023290
  1F   2s        -0.019845  1.023111 -0.000000 -0.000000  0.105999 -0.115740
  1F   1pz        0.000379 -0.000850  0.000000 -0.000000  0.696289  0.724861
  1F   1px       -0.000000 -0.000000 -0.780737 -0.624860 -0.000000 -0.000000
  1F   1py       -0.000000 -0.000000 -0.624860  0.780737  0.000000  0.000000

MULLIKEN ATOMIC CHARGES
-----------------------
   0 H :    0.053568
   1 F :   -0.053568
Sum of atomic charges:   -0.0000000

LOEWDIN ATOMIC CHARGES
----------------------
   0 H :    0.050730
   1 F :   -0.050730

  Mayer bond orders larger than 0.100000
B(  0-H ,  1-F ) :   0.9971

FINAL SINGLE POINT ENERGY       -98.332623310579

DIPOLE MOMENT
-------------
                                X             Y             Z
Electronic contribution:     -0.00000      -0.00000       1.30645
Nuclear contribution   :      0.00000       0.00000      -1.62484
                        -----------------------------------------
Total Dipole Moment    :     -0.00000      -0.00000      -0.31839
                        -----------------------------------------
Magnitude (a.u.)       :      0.31839
Magnitude (Debye)      :      0.80929

Rotational constants in cm-1:     0.000000     5.863968     5.863968
Rotational constants in MHz :     0.000000 175797.351371 175797.351371

                             ****ORCA TERMINATED NORMALLY****
TOTAL RUN TIME: 0 days 0 hours 0 minutes 0 seconds 141 msec
