                         Program Version 5.0.4 -  RELEASE  -
|  1> ! HF STO-3G LARGEPRINT
|  2>
|  3> %output
|  4> 	Print[ P_Basis ] 2
|  5> 	Print[ P_MOs ] 1
|  6> end
|  7>
|  8> * xyzfile 0 1 hli-b.xyz
|  9>
| 10>                          ****END OF INPUT****

CARTESIAN COORDINATES (ANGSTROEM)
---------------------------------
  H      0.000000    0.000000    0.000000
  Li     0.000000    0.000000    0.917069

 Total Charge           Charge          ....    0
 Multiplicity           Mult            ....    1
 Number of Electrons    NEL             ....    4
 Basis Dimension        Dim             ....    6

ORBITAL ENERGIES
----------------

  NO   OCC          E(Eh)            E(eV)
   0   2.0000      -2.390719       -65.0548
   1   2.0000      -0.314537        -8.5590
   2   0.0000       0.074295         2.0217
   3   0.0000       0.155390         4.2284
   4   0.0000       0.155390         4.2284
   5   0.0000       0.603163        16.4129
------------------
MOLECULAR ORBITALS
------------------
                      0         1         2         3         4         5
                  -2.39072  -0.31454   0.07429   0.15539   0.15539   0.60316
                   2.00000   2.00000   0.00000   0.00000   0.00000   0.00000
                  --------  --------  --------  --------  --------  --------
  0H   1s         0.050853 -0.546092 -0.148638 -0.000000 -0.000000  1.498009
  1Li  1s         0.981924  0.279487 -0.184546  0.000000 -0.000000 -0.196432
  1Li  2s         0.013034 -0.380123  0.847181  0.000000  0.000000 -0.941596
  1Li  1pz        0.018947  0.392414  0.577896  0.000000  0.000000  1.116228
  1Li  1px       -0.000000 -0.000000 -0.000000  0.982191  0.187883  0.000000
  1Li  1py        0.000000 -0.000000  0.000000  0.187883 -0.982191  0.000000

MULLIKEN ATOMIC CHARGES
-----------------------
   0 H :   -0.004568
   1 Li:    0.004568
Sum of atomic charges:    0.0000000

LOEWDIN ATOMIC CHARGES
----------------------
   0 H :    0.004507
   1 Li:   -0.004507

  Mayer bond orders larger than 0.100000
B(  0-H ,  1-Li) :   1.0000

FINAL SINGLE POINT ENERGY        -7.718016170530

DIPOLE MOMENT
-------------
                                X             Y             Z
Electronic contribution:     -0.00000      -0.00000       2.75629
Nuclear contribution   :      0.00000       0.00000      -0.85397
                        -----------------------------------------
Total Dipole Moment    :     -0.00000      -0.00000       1.90232
                        -----------------------------------------
Magnitude (a.u.)       :      1.90232
Magnitude (Debye)      :      4.83531

Rotational constants in cm-1:     0.000000    22.773137    22.773137
Rotational constants in MHz :     0.000000 682721.461288 682721.461288

                             ****ORCA TERMINATED NORMALLY****
TOTAL RUN TIME: 0 days 0 hours 0 minutes 0 seconds 212 msec
