                         Program Version 5.0.4 -  RELEASE  -
|  1> ! HF STO-3G LARGEPRINT
|  2>
|  3> %output
|  4> 	Print[ P_Basis ] 2
|  5> 	Print[ P_MOs ] 1
|  6> end
|  7>
|  8> * xyzfile 0 1 n2-b.xyz
|  9>
| 10>                          ****END OF INPUT****

CARTESIAN COORDINATES (ANGSTROEM)
---------------------------------
  N      0.000000    0.000000    0.000000
  N      0.000000    0.000000    1.097519

 Total Charge           Charge          ....    0
 Multiplicity           Mult            ....    1
 Number of Electrons    NEL             ....   14
 Basis Dimension        Dim             ....   10

ORBITAL ENERGIES
----------------

  NO   OCC          E(Eh)            E(eV)
   0   2.0000     -15.518060      -422.2679
   1   2.0000     -15.516117      -422.2150
   2   2.0000      -1.442821       -39.2612
   3   2.0000      -0.722494       -19.6600
   4   2.0000      -0.573110       -15.5951
   5   2.0000      -0.573110       -15.5951
   6   2.0000      -0.539490       -14.6803
   7   0.0000       0.281310         7.6548
   8   0.0000       0.281310         7.6548
   9   0.0000       1.123430        30.5701
------------------
MOLECULAR ORBITALS
------------------
                      0         1         2         3         4         5
                 -15.51806 -15.51612  -1.44282  -0.72249  -0.57311  -0.57311
                   2.00000   2.00000   2.00000   2.00000   2.00000   2.00000
                  --------  --------  --------  --------  --------  --------
  0N   1s        -0.703074  0.702848  0.175813 -0.171067  0.000000 -0.000000
  0N   2s        -0.012841  0.026905 -0.488803  0.742025 -0.000000  0.000000
  0N   1pz       -0.002087  0.009859 -0.240160 -0.264234 -0.000000 -0.000000
  0N   1px       -0.000000 -0.000000 -0.000000 -0.000000  0.336445 -0.526574
  0N   1py        0.000000  0.000000 -0.000000  0.000000  0.526574  0.336445
  1N   1s        -0.703074 -0.702848  0.175813  0.171067 -0.000000 -0.000000
  1N   2s        -0.012841 -0.026905 -0.488803 -0.742025  0.000000  0.000000
  1N   1pz        0.002087  0.009859  0.240160 -0.264234 -0.000000  0.000000
  1N   1px       -0.000000  0.000000  0.000000  0.000000  0.336445 -0.526574
  1N   1py       -0.000000 -0.000000  0.000000  0.000000  0.526574  0.336445
                      6         7         8         9
                  -0.53949   0.28131   0.28131   1.12343
                   2.00000   0.00000   0.00000   0.00000
                  --------  --------  --------  --------
  0N   1s        -0.069015  0.000000 -0.000000  0.126357
  0N   2s         0.408137 -0.000000  0.000000 -1.203540
  0N   1pz       -0.603797  0.000000  0.000000 -1.212674
  0N   1px        0.000000  0.024516  0.833257 -0.000000
  0N   1py        0.000000  0.833257 -0.024516 -0.000000
  1N   1s        -0.069015  0.000000  0.000000 -0.126357
  1N   2s         0.408137 -0.000000 -0.000000  1.203540
  1N   1pz        0.603797 -0.000000 -0.000000 -1.212674
  1N   1px        0.000000 -0.024516 -0.833257 -0.000000
  1N   1py       -0.000000 -0.833257  0.024516 -0.000000

MULLIKEN ATOMIC CHARGES
-----------------------
   0 N :    0.000000
   1 N :   -0.000000
Sum of atomic charges:    0.0000000

LOEWDIN ATOMIC CHARGES
----------------------
   0 N :    0.000000
   1 N :   -0.000000

  Mayer bond orders larger than 0.100000
B(  0-N ,  1-N ) :   3.0000

FINAL SINGLE POINT ENERGY      -107.495843723106

DIPOLE MOMENT
-------------
                                X             Y             Z
Electronic contribution:      0.00000       0.00000      -0.00000
Nuclear contribution   :      0.00000       0.00000       0.00000
                        -----------------------------------------
Total Dipole Moment    :      0.00000       0.00000      -0.00000
                        -----------------------------------------
Magnitude (a.u.)       :      0.00000
Magnitude (Debye)      :      0.00000

Rotational constants in cm-1:     0.000000     1.998285     1.998285
Rotational constants in MHz :     0.000000 59907.076038 59907.076038

                             ****ORCA TERMINATED NORMALLY****
TOTAL RUN TIME: 0 days 0 hours 0 minutes 0 seconds 133 msec
