                         Program Version 5.0.4 -  RELEASE  -
|  1> ! HF STO-3G LARGEPRINT
|  2>
|  3> %output
|  4> 	Print[ P_Basis ] 2
|  5> 	Print[ P_MOs ] 1
|  6> end
|  7>
|  8> * xyzfile 0 1 n2.xyz
|  9>
| 10>                          ****END OF INPUT****

CARTESIAN COORDINATES (ANGSTROEM)
---------------------------------
  N      0.000000    0.000000    0.000000
  N      0.000000    0.000000    2.074000

 Total Charge           Charge          ....    0
 Multiplicity           Mult            ....    1
 Number of Electrons    NEL             ....   14
 Basis Dimension        Dim             ....   10

ORBITAL ENERGIES
----------------

  NO   OCC          E(Eh)            E(eV)
   0   2.0000     -15.369761      -418.2325
   1   2.0000     -15.369545      -418.2266
   2   2.0000      -0.956311       -26.0226
   3   2.0000      -0.832441       -22.6519
   4   2.0000      -0.301128        -8.1941
   5   2.0000      -0.226515        -6.1638
   6   2.0000      -0.226515        -6.1638
   7   0.0000       0.069291         1.8855
   8   0.0000       0.069291         1.8855
   9   0.0000       0.196588         5.3494
------------------
MOLECULAR ORBITALS
------------------
                      0         1         2         3         4         5
                 -15.36976 -15.36954  -0.95631  -0.83244  -0.30113  -0.22652
                   2.00000   2.00000   2.00000   2.00000   2.00000   2.00000
                  --------  --------  --------  --------  --------  --------
  0N   1s         0.703352 -0.703660 -0.178729 -0.187746  0.028694  0.000000
  0N   2s         0.015520 -0.013953  0.693498  0.743909 -0.127899 -0.000000
  0N   1pz        0.001481  0.000360  0.058981 -0.072031  0.664541 -0.000000
  0N   1px        0.000000 -0.000000  0.000000  0.000000  0.000000  0.669521
  0N   1py        0.000000  0.000000  0.000000 -0.000000  0.000000 -0.192974
  1N   1s        -0.703353 -0.703659 -0.178729  0.187746  0.028694 -0.000000
  1N   2s        -0.015520 -0.013953  0.693498 -0.743909 -0.127899  0.000000
  1N   1pz        0.001481 -0.000360 -0.058981 -0.072031 -0.664541  0.000000
  1N   1px       -0.000000  0.000000  0.000000 -0.000000  0.000000  0.669521
  1N   1py       -0.000000  0.000000 -0.000000  0.000000 -0.000000 -0.192974
                      6         7         8         9
                  -0.22652   0.06929   0.06929   0.19659
                   2.00000   0.00000   0.00000   0.00000
                  --------  --------  --------  --------
  0N   1s         0.000000  0.000000 -0.000000  0.035883
  0N   2s        -0.000000 -0.000000  0.000000 -0.158500
  0N   1pz        0.000000  0.000000 -0.000000 -0.761268
  0N   1px       -0.192974  0.712796  0.085543 -0.000000
  0N   1py       -0.669521 -0.085543  0.712796  0.000000
  1N   1s         0.000000  0.000000 -0.000000 -0.035883
  1N   2s        -0.000000 -0.000000  0.000000  0.158500
  1N   1pz       -0.000000 -0.000000  0.000000 -0.761268
  1N   1px       -0.192974 -0.712796 -0.085543 -0.000000
  1N   1py       -0.669521  0.085543 -0.712796  0.000000

MULLIKEN ATOMIC CHARGES
-----------------------
   0 N :   -0.000000
   1 N :    0.000000
Sum of atomic charges:   -0.0000000

LOEWDIN ATOMIC CHARGES
----------------------
   0 N :   -0.000000
   1 N :    0.000000

  Mayer bond orders larger than 0.100000
B(  0-N ,  1-N ) :   3.0000

FINAL SINGLE POINT ENERGY      -106.824178651521

DIPOLE MOMENT
-------------
                                X             Y             Z
Electronic contribution:     -0.00000      -0.00000       0.00000
Nuclear contribution   :      0.00000       0.00000      -0.00000
                        -----------------------------------------
Total Dipole Moment    :     -0.00000      -0.00000       0.00000
                        -----------------------------------------
Magnitude (a.u.)       :      0.00000
Magnitude (Debye)      :      0.00000

Rotational constants in cm-1:     0.000000     0.559583     0.559583
Rotational constants in MHz :     0.000000 16775.866710 16775.866710

                             ****ORCA TERMINATED NORMALLY****
TOTAL RUN TIME: 0 days 0 hours 0 minutes 0 seconds 147 msec
